phonopy:
  version: "2.30.1"
  frequency_unit_conversion_factor: 15.633302
  symmetry_tolerance: 1.00000e-05
  configuration:
    create_displacements: ".true."
    dim: "3 3 3"

physical_unit:
  atomic_mass: "AMU"
  length: "angstrom"

space_group:
  type: "Fm-3m"
  number: 225
  Hall_symbol: "-F 4 2 3"

supercell_matrix:
- [   3,   0,   0 ]
- [   0,   3,   0 ]
- [   0,   0,   3 ]

primitive_cell:
  lattice:
  - [     3.999961175532329,     0.000000000000000,     0.000000000000000 ] # a
  - [     0.000000000000000,     3.999961175532329,     0.000000000000000 ] # b
  - [     0.000000000000000,     0.000000000000000,     3.999961175532329 ] # c
  points:
  - symbol: Li # 1
    coordinates: [  0.000000000000000,  0.000000000000000,  0.000000000000000 ]
    mass: 6.941000
  - symbol: Li # 2
    coordinates: [  0.000000000000000,  0.500000000000000,  0.500000000000000 ]
    mass: 6.941000
  - symbol: Li # 3
    coordinates: [  0.500000000000000,  0.000000000000000,  0.500000000000000 ]
    mass: 6.941000
  - symbol: Li # 4
    coordinates: [  0.500000000000000,  0.500000000000000,  0.000000000000000 ]
    mass: 6.941000
  - symbol: H # 5
    coordinates: [  0.000000000000000,  0.500000000000000,  0.000000000000000 ]
    mass: 1.007940
  - symbol: H # 6
    coordinates: [  0.000000000000000,  0.000000000000000,  0.500000000000000 ]
    mass: 1.007940
  - symbol: H # 7
    coordinates: [  0.500000000000000,  0.500000000000000,  0.500000000000000 ]
    mass: 1.007940
  - symbol: H # 8
    coordinates: [  0.500000000000000,  0.000000000000000,  0.000000000000000 ]
    mass: 1.007940
  reciprocal_lattice: # without 2pi
  - [     0.250002426552782,     0.000000000000000,     0.000000000000000 ] # a*
  - [     0.000000000000000,     0.250002426552782,     0.000000000000000 ] # b*
  - [     0.000000000000000,     0.000000000000000,     0.250002426552782 ] # c*

unit_cell:
  lattice:
  - [     3.999961175532329,     0.000000000000000,     0.000000000000000 ] # a
  - [     0.000000000000000,     3.999961175532329,     0.000000000000000 ] # b
  - [     0.000000000000000,     0.000000000000000,     3.999961175532329 ] # c
  points:
  - symbol: Li # 1
    coordinates: [  0.000000000000000,  0.000000000000000,  0.000000000000000 ]
    mass: 6.941000
    reduced_to: 1
  - symbol: Li # 2
    coordinates: [  0.000000000000000,  0.500000000000000,  0.500000000000000 ]
    mass: 6.941000
    reduced_to: 2
  - symbol: Li # 3
    coordinates: [  0.500000000000000,  0.000000000000000,  0.500000000000000 ]
    mass: 6.941000
    reduced_to: 3
  - symbol: Li # 4
    coordinates: [  0.500000000000000,  0.500000000000000,  0.000000000000000 ]
    mass: 6.941000
    reduced_to: 4
  - symbol: H # 5
    coordinates: [  0.000000000000000,  0.500000000000000,  0.000000000000000 ]
    mass: 1.007940
    reduced_to: 5
  - symbol: H # 6
    coordinates: [  0.000000000000000,  0.000000000000000,  0.500000000000000 ]
    mass: 1.007940
    reduced_to: 6
  - symbol: H # 7
    coordinates: [  0.500000000000000,  0.500000000000000,  0.500000000000000 ]
    mass: 1.007940
    reduced_to: 7
  - symbol: H # 8
    coordinates: [  0.500000000000000,  0.000000000000000,  0.000000000000000 ]
    mass: 1.007940
    reduced_to: 8

supercell:
  lattice:
  - [    11.999883526596989,     0.000000000000000,     0.000000000000000 ] # a
  - [     0.000000000000000,    11.999883526596989,     0.000000000000000 ] # b
  - [     0.000000000000000,     0.000000000000000,    11.999883526596989 ] # c
  points:
  - symbol: Li # 1
    coordinates: [  0.000000000000000,  0.000000000000000,  0.000000000000000 ]
    mass: 6.941000
    reduced_to: 1
  - symbol: Li # 2
    coordinates: [  0.333333333333333,  0.000000000000000,  0.000000000000000 ]
    mass: 6.941000
    reduced_to: 1
  - symbol: Li # 3
    coordinates: [  0.666666666666667,  0.000000000000000,  0.000000000000000 ]
    mass: 6.941000
    reduced_to: 1
  - symbol: Li # 4
    coordinates: [  0.000000000000000,  0.333333333333333,  0.000000000000000 ]
    mass: 6.941000
    reduced_to: 1
  - symbol: Li # 5
    coordinates: [  0.333333333333333,  0.333333333333333,  0.000000000000000 ]
    mass: 6.941000
    reduced_to: 1
  - symbol: Li # 6
    coordinates: [  0.666666666666667,  0.333333333333333,  0.000000000000000 ]
    mass: 6.941000
    reduced_to: 1
  - symbol: Li # 7
    coordinates: [  0.000000000000000,  0.666666666666667,  0.000000000000000 ]
    mass: 6.941000
    reduced_to: 1
  - symbol: Li # 8
    coordinates: [  0.333333333333333,  0.666666666666667,  0.000000000000000 ]
    mass: 6.941000
    reduced_to: 1
  - symbol: Li # 9
    coordinates: [  0.666666666666667,  0.666666666666667,  0.000000000000000 ]
    mass: 6.941000
    reduced_to: 1
  - symbol: Li # 10
    coordinates: [  0.000000000000000,  0.000000000000000,  0.333333333333333 ]
    mass: 6.941000
    reduced_to: 1
  - symbol: Li # 11
    coordinates: [  0.333333333333333,  0.000000000000000,  0.333333333333333 ]
    mass: 6.941000
    reduced_to: 1
  - symbol: Li # 12
    coordinates: [  0.666666666666667,  0.000000000000000,  0.333333333333333 ]
    mass: 6.941000
    reduced_to: 1
  - symbol: Li # 13
    coordinates: [  0.000000000000000,  0.333333333333333,  0.333333333333333 ]
    mass: 6.941000
    reduced_to: 1
  - symbol: Li # 14
    coordinates: [  0.333333333333333,  0.333333333333333,  0.333333333333333 ]
    mass: 6.941000
    reduced_to: 1
  - symbol: Li # 15
    coordinates: [  0.666666666666667,  0.333333333333333,  0.333333333333333 ]
    mass: 6.941000
    reduced_to: 1
  - symbol: Li # 16
    coordinates: [  0.000000000000000,  0.666666666666667,  0.333333333333333 ]
    mass: 6.941000
    reduced_to: 1
  - symbol: Li # 17
    coordinates: [  0.333333333333333,  0.666666666666667,  0.333333333333333 ]
    mass: 6.941000
    reduced_to: 1
  - symbol: Li # 18
    coordinates: [  0.666666666666667,  0.666666666666667,  0.333333333333333 ]
    mass: 6.941000
    reduced_to: 1
  - symbol: Li # 19
    coordinates: [  0.000000000000000,  0.000000000000000,  0.666666666666667 ]
    mass: 6.941000
    reduced_to: 1
  - symbol: Li # 20
    coordinates: [  0.333333333333333,  0.000000000000000,  0.666666666666667 ]
    mass: 6.941000
    reduced_to: 1
  - symbol: Li # 21
    coordinates: [  0.666666666666667,  0.000000000000000,  0.666666666666667 ]
    mass: 6.941000
    reduced_to: 1
  - symbol: Li # 22
    coordinates: [  0.000000000000000,  0.333333333333333,  0.666666666666667 ]
    mass: 6.941000
    reduced_to: 1
  - symbol: Li # 23
    coordinates: [  0.333333333333333,  0.333333333333333,  0.666666666666667 ]
    mass: 6.941000
    reduced_to: 1
  - symbol: Li # 24
    coordinates: [  0.666666666666667,  0.333333333333333,  0.666666666666667 ]
    mass: 6.941000
    reduced_to: 1
  - symbol: Li # 25
    coordinates: [  0.000000000000000,  0.666666666666667,  0.666666666666667 ]
    mass: 6.941000
    reduced_to: 1
  - symbol: Li # 26
    coordinates: [  0.333333333333333,  0.666666666666667,  0.666666666666667 ]
    mass: 6.941000
    reduced_to: 1
  - symbol: Li # 27
    coordinates: [  0.666666666666667,  0.666666666666667,  0.666666666666667 ]
    mass: 6.941000
    reduced_to: 1
  - symbol: Li # 28
    coordinates: [  0.000000000000000,  0.166666666666667,  0.166666666666667 ]
    mass: 6.941000
    reduced_to: 28
  - symbol: Li # 29
    coordinates: [  0.333333333333333,  0.166666666666667,  0.166666666666667 ]
    mass: 6.941000
    reduced_to: 28
  - symbol: Li # 30
    coordinates: [  0.666666666666667,  0.166666666666667,  0.166666666666667 ]
    mass: 6.941000
    reduced_to: 28
  - symbol: Li # 31
    coordinates: [  0.000000000000000,  0.500000000000000,  0.166666666666667 ]
    mass: 6.941000
    reduced_to: 28
  - symbol: Li # 32
    coordinates: [  0.333333333333333,  0.500000000000000,  0.166666666666667 ]
    mass: 6.941000
    reduced_to: 28
  - symbol: Li # 33
    coordinates: [  0.666666666666667,  0.500000000000000,  0.166666666666667 ]
    mass: 6.941000
    reduced_to: 28
  - symbol: Li # 34
    coordinates: [  0.000000000000000,  0.833333333333333,  0.166666666666667 ]
    mass: 6.941000
    reduced_to: 28
  - symbol: Li # 35
    coordinates: [  0.333333333333333,  0.833333333333333,  0.166666666666667 ]
    mass: 6.941000
    reduced_to: 28
  - symbol: Li # 36
    coordinates: [  0.666666666666667,  0.833333333333333,  0.166666666666667 ]
    mass: 6.941000
    reduced_to: 28
  - symbol: Li # 37
    coordinates: [  0.000000000000000,  0.166666666666667,  0.500000000000000 ]
    mass: 6.941000
    reduced_to: 28
  - symbol: Li # 38
    coordinates: [  0.333333333333333,  0.166666666666667,  0.500000000000000 ]
    mass: 6.941000
    reduced_to: 28
  - symbol: Li # 39
    coordinates: [  0.666666666666667,  0.166666666666667,  0.500000000000000 ]
    mass: 6.941000
    reduced_to: 28
  - symbol: Li # 40
    coordinates: [  0.000000000000000,  0.500000000000000,  0.500000000000000 ]
    mass: 6.941000
    reduced_to: 28
  - symbol: Li # 41
    coordinates: [  0.333333333333333,  0.500000000000000,  0.500000000000000 ]
    mass: 6.941000
    reduced_to: 28
  - symbol: Li # 42
    coordinates: [  0.666666666666667,  0.500000000000000,  0.500000000000000 ]
    mass: 6.941000
    reduced_to: 28
  - symbol: Li # 43
    coordinates: [  0.000000000000000,  0.833333333333333,  0.500000000000000 ]
    mass: 6.941000
    reduced_to: 28
  - symbol: Li # 44
    coordinates: [  0.333333333333333,  0.833333333333333,  0.500000000000000 ]
    mass: 6.941000
    reduced_to: 28
  - symbol: Li # 45
    coordinates: [  0.666666666666667,  0.833333333333333,  0.500000000000000 ]
    mass: 6.941000
    reduced_to: 28
  - symbol: Li # 46
    coordinates: [  0.000000000000000,  0.166666666666667,  0.833333333333333 ]
    mass: 6.941000
    reduced_to: 28
  - symbol: Li # 47
    coordinates: [  0.333333333333333,  0.166666666666667,  0.833333333333333 ]
    mass: 6.941000
    reduced_to: 28
  - symbol: Li # 48
    coordinates: [  0.666666666666667,  0.166666666666667,  0.833333333333333 ]
    mass: 6.941000
    reduced_to: 28
  - symbol: Li # 49
    coordinates: [  0.000000000000000,  0.500000000000000,  0.833333333333333 ]
    mass: 6.941000
    reduced_to: 28
  - symbol: Li # 50
    coordinates: [  0.333333333333333,  0.500000000000000,  0.833333333333333 ]
    mass: 6.941000
    reduced_to: 28
  - symbol: Li # 51
    coordinates: [  0.666666666666667,  0.500000000000000,  0.833333333333333 ]
    mass: 6.941000
    reduced_to: 28
  - symbol: Li # 52
    coordinates: [  0.000000000000000,  0.833333333333333,  0.833333333333333 ]
    mass: 6.941000
    reduced_to: 28
  - symbol: Li # 53
    coordinates: [  0.333333333333333,  0.833333333333333,  0.833333333333333 ]
    mass: 6.941000
    reduced_to: 28
  - symbol: Li # 54
    coordinates: [  0.666666666666667,  0.833333333333333,  0.833333333333333 ]
    mass: 6.941000
    reduced_to: 28
  - symbol: Li # 55
    coordinates: [  0.166666666666667,  0.000000000000000,  0.166666666666667 ]
    mass: 6.941000
    reduced_to: 55
  - symbol: Li # 56
    coordinates: [  0.500000000000000,  0.000000000000000,  0.166666666666667 ]
    mass: 6.941000
    reduced_to: 55
  - symbol: Li # 57
    coordinates: [  0.833333333333333,  0.000000000000000,  0.166666666666667 ]
    mass: 6.941000
    reduced_to: 55
  - symbol: Li # 58
    coordinates: [  0.166666666666667,  0.333333333333333,  0.166666666666667 ]
    mass: 6.941000
    reduced_to: 55
  - symbol: Li # 59
    coordinates: [  0.500000000000000,  0.333333333333333,  0.166666666666667 ]
    mass: 6.941000
    reduced_to: 55
  - symbol: Li # 60
    coordinates: [  0.833333333333333,  0.333333333333333,  0.166666666666667 ]
    mass: 6.941000
    reduced_to: 55
  - symbol: Li # 61
    coordinates: [  0.166666666666667,  0.666666666666667,  0.166666666666667 ]
    mass: 6.941000
    reduced_to: 55
  - symbol: Li # 62
    coordinates: [  0.500000000000000,  0.666666666666667,  0.166666666666667 ]
    mass: 6.941000
    reduced_to: 55
  - symbol: Li # 63
    coordinates: [  0.833333333333333,  0.666666666666667,  0.166666666666667 ]
    mass: 6.941000
    reduced_to: 55
  - symbol: Li # 64
    coordinates: [  0.166666666666667,  0.000000000000000,  0.500000000000000 ]
    mass: 6.941000
    reduced_to: 55
  - symbol: Li # 65
    coordinates: [  0.500000000000000,  0.000000000000000,  0.500000000000000 ]
    mass: 6.941000
    reduced_to: 55
  - symbol: Li # 66
    coordinates: [  0.833333333333333,  0.000000000000000,  0.500000000000000 ]
    mass: 6.941000
    reduced_to: 55
  - symbol: Li # 67
    coordinates: [  0.166666666666667,  0.333333333333333,  0.500000000000000 ]
    mass: 6.941000
    reduced_to: 55
  - symbol: Li # 68
    coordinates: [  0.500000000000000,  0.333333333333333,  0.500000000000000 ]
    mass: 6.941000
    reduced_to: 55
  - symbol: Li # 69
    coordinates: [  0.833333333333333,  0.333333333333333,  0.500000000000000 ]
    mass: 6.941000
    reduced_to: 55
  - symbol: Li # 70
    coordinates: [  0.166666666666667,  0.666666666666667,  0.500000000000000 ]
    mass: 6.941000
    reduced_to: 55
  - symbol: Li # 71
    coordinates: [  0.500000000000000,  0.666666666666667,  0.500000000000000 ]
    mass: 6.941000
    reduced_to: 55
  - symbol: Li # 72
    coordinates: [  0.833333333333333,  0.666666666666667,  0.500000000000000 ]
    mass: 6.941000
    reduced_to: 55
  - symbol: Li # 73
    coordinates: [  0.166666666666667,  0.000000000000000,  0.833333333333333 ]
    mass: 6.941000
    reduced_to: 55
  - symbol: Li # 74
    coordinates: [  0.500000000000000,  0.000000000000000,  0.833333333333333 ]
    mass: 6.941000
    reduced_to: 55
  - symbol: Li # 75
    coordinates: [  0.833333333333333,  0.000000000000000,  0.833333333333333 ]
    mass: 6.941000
    reduced_to: 55
  - symbol: Li # 76
    coordinates: [  0.166666666666667,  0.333333333333333,  0.833333333333333 ]
    mass: 6.941000
    reduced_to: 55
  - symbol: Li # 77
    coordinates: [  0.500000000000000,  0.333333333333333,  0.833333333333333 ]
    mass: 6.941000
    reduced_to: 55
  - symbol: Li # 78
    coordinates: [  0.833333333333333,  0.333333333333333,  0.833333333333333 ]
    mass: 6.941000
    reduced_to: 55
  - symbol: Li # 79
    coordinates: [  0.166666666666667,  0.666666666666667,  0.833333333333333 ]
    mass: 6.941000
    reduced_to: 55
  - symbol: Li # 80
    coordinates: [  0.500000000000000,  0.666666666666667,  0.833333333333333 ]
    mass: 6.941000
    reduced_to: 55
  - symbol: Li # 81
    coordinates: [  0.833333333333333,  0.666666666666667,  0.833333333333333 ]
    mass: 6.941000
    reduced_to: 55
  - symbol: Li # 82
    coordinates: [  0.166666666666667,  0.166666666666667,  0.000000000000000 ]
    mass: 6.941000
    reduced_to: 82
  - symbol: Li # 83
    coordinates: [  0.500000000000000,  0.166666666666667,  0.000000000000000 ]
    mass: 6.941000
    reduced_to: 82
  - symbol: Li # 84
    coordinates: [  0.833333333333333,  0.166666666666667,  0.000000000000000 ]
    mass: 6.941000
    reduced_to: 82
  - symbol: Li # 85
    coordinates: [  0.166666666666667,  0.500000000000000,  0.000000000000000 ]
    mass: 6.941000
    reduced_to: 82
  - symbol: Li # 86
    coordinates: [  0.500000000000000,  0.500000000000000,  0.000000000000000 ]
    mass: 6.941000
    reduced_to: 82
  - symbol: Li # 87
    coordinates: [  0.833333333333333,  0.500000000000000,  0.000000000000000 ]
    mass: 6.941000
    reduced_to: 82
  - symbol: Li # 88
    coordinates: [  0.166666666666667,  0.833333333333333,  0.000000000000000 ]
    mass: 6.941000
    reduced_to: 82
  - symbol: Li # 89
    coordinates: [  0.500000000000000,  0.833333333333333,  0.000000000000000 ]
    mass: 6.941000
    reduced_to: 82
  - symbol: Li # 90
    coordinates: [  0.833333333333333,  0.833333333333333,  0.000000000000000 ]
    mass: 6.941000
    reduced_to: 82
  - symbol: Li # 91
    coordinates: [  0.166666666666667,  0.166666666666667,  0.333333333333333 ]
    mass: 6.941000
    reduced_to: 82
  - symbol: Li # 92
    coordinates: [  0.500000000000000,  0.166666666666667,  0.333333333333333 ]
    mass: 6.941000
    reduced_to: 82
  - symbol: Li # 93
    coordinates: [  0.833333333333333,  0.166666666666667,  0.333333333333333 ]
    mass: 6.941000
    reduced_to: 82
  - symbol: Li # 94
    coordinates: [  0.166666666666667,  0.500000000000000,  0.333333333333333 ]
    mass: 6.941000
    reduced_to: 82
  - symbol: Li # 95
    coordinates: [  0.500000000000000,  0.500000000000000,  0.333333333333333 ]
    mass: 6.941000
    reduced_to: 82
  - symbol: Li # 96
    coordinates: [  0.833333333333333,  0.500000000000000,  0.333333333333333 ]
    mass: 6.941000
    reduced_to: 82
  - symbol: Li # 97
    coordinates: [  0.166666666666667,  0.833333333333333,  0.333333333333333 ]
    mass: 6.941000
    reduced_to: 82
  - symbol: Li # 98
    coordinates: [  0.500000000000000,  0.833333333333333,  0.333333333333333 ]
    mass: 6.941000
    reduced_to: 82
  - symbol: Li # 99
    coordinates: [  0.833333333333333,  0.833333333333333,  0.333333333333333 ]
    mass: 6.941000
    reduced_to: 82
  - symbol: Li # 100
    coordinates: [  0.166666666666667,  0.166666666666667,  0.666666666666667 ]
    mass: 6.941000
    reduced_to: 82
  - symbol: Li # 101
    coordinates: [  0.500000000000000,  0.166666666666667,  0.666666666666667 ]
    mass: 6.941000
    reduced_to: 82
  - symbol: Li # 102
    coordinates: [  0.833333333333333,  0.166666666666667,  0.666666666666667 ]
    mass: 6.941000
    reduced_to: 82
  - symbol: Li # 103
    coordinates: [  0.166666666666667,  0.500000000000000,  0.666666666666667 ]
    mass: 6.941000
    reduced_to: 82
  - symbol: Li # 104
    coordinates: [  0.500000000000000,  0.500000000000000,  0.666666666666667 ]
    mass: 6.941000
    reduced_to: 82
  - symbol: Li # 105
    coordinates: [  0.833333333333333,  0.500000000000000,  0.666666666666667 ]
    mass: 6.941000
    reduced_to: 82
  - symbol: Li # 106
    coordinates: [  0.166666666666667,  0.833333333333333,  0.666666666666667 ]
    mass: 6.941000
    reduced_to: 82
  - symbol: Li # 107
    coordinates: [  0.500000000000000,  0.833333333333333,  0.666666666666667 ]
    mass: 6.941000
    reduced_to: 82
  - symbol: Li # 108
    coordinates: [  0.833333333333333,  0.833333333333333,  0.666666666666667 ]
    mass: 6.941000
    reduced_to: 82
  - symbol: H # 109
    coordinates: [  0.000000000000000,  0.166666666666667,  0.000000000000000 ]
    mass: 1.007940
    reduced_to: 109
  - symbol: H # 110
    coordinates: [  0.333333333333333,  0.166666666666667,  0.000000000000000 ]
    mass: 1.007940
    reduced_to: 109
  - symbol: H # 111
    coordinates: [  0.666666666666667,  0.166666666666667,  0.000000000000000 ]
    mass: 1.007940
    reduced_to: 109
  - symbol: H # 112
    coordinates: [  0.000000000000000,  0.500000000000000,  0.000000000000000 ]
    mass: 1.007940
    reduced_to: 109
  - symbol: H # 113
    coordinates: [  0.333333333333333,  0.500000000000000,  0.000000000000000 ]
    mass: 1.007940
    reduced_to: 109
  - symbol: H # 114
    coordinates: [  0.666666666666667,  0.500000000000000,  0.000000000000000 ]
    mass: 1.007940
    reduced_to: 109
  - symbol: H # 115
    coordinates: [  0.000000000000000,  0.833333333333333,  0.000000000000000 ]
    mass: 1.007940
    reduced_to: 109
  - symbol: H # 116
    coordinates: [  0.333333333333333,  0.833333333333333,  0.000000000000000 ]
    mass: 1.007940
    reduced_to: 109
  - symbol: H # 117
    coordinates: [  0.666666666666667,  0.833333333333333,  0.000000000000000 ]
    mass: 1.007940
    reduced_to: 109
  - symbol: H # 118
    coordinates: [  0.000000000000000,  0.166666666666667,  0.333333333333333 ]
    mass: 1.007940
    reduced_to: 109
  - symbol: H # 119
    coordinates: [  0.333333333333333,  0.166666666666667,  0.333333333333333 ]
    mass: 1.007940
    reduced_to: 109
  - symbol: H # 120
    coordinates: [  0.666666666666667,  0.166666666666667,  0.333333333333333 ]
    mass: 1.007940
    reduced_to: 109
  - symbol: H # 121
    coordinates: [  0.000000000000000,  0.500000000000000,  0.333333333333333 ]
    mass: 1.007940
    reduced_to: 109
  - symbol: H # 122
    coordinates: [  0.333333333333333,  0.500000000000000,  0.333333333333333 ]
    mass: 1.007940
    reduced_to: 109
  - symbol: H # 123
    coordinates: [  0.666666666666667,  0.500000000000000,  0.333333333333333 ]
    mass: 1.007940
    reduced_to: 109
  - symbol: H # 124
    coordinates: [  0.000000000000000,  0.833333333333333,  0.333333333333333 ]
    mass: 1.007940
    reduced_to: 109
  - symbol: H # 125
    coordinates: [  0.333333333333333,  0.833333333333333,  0.333333333333333 ]
    mass: 1.007940
    reduced_to: 109
  - symbol: H # 126
    coordinates: [  0.666666666666667,  0.833333333333333,  0.333333333333333 ]
    mass: 1.007940
    reduced_to: 109
  - symbol: H # 127
    coordinates: [  0.000000000000000,  0.166666666666667,  0.666666666666667 ]
    mass: 1.007940
    reduced_to: 109
  - symbol: H # 128
    coordinates: [  0.333333333333333,  0.166666666666667,  0.666666666666667 ]
    mass: 1.007940
    reduced_to: 109
  - symbol: H # 129
    coordinates: [  0.666666666666667,  0.166666666666667,  0.666666666666667 ]
    mass: 1.007940
    reduced_to: 109
  - symbol: H # 130
    coordinates: [  0.000000000000000,  0.500000000000000,  0.666666666666667 ]
    mass: 1.007940
    reduced_to: 109
  - symbol: H # 131
    coordinates: [  0.333333333333333,  0.500000000000000,  0.666666666666667 ]
    mass: 1.007940
    reduced_to: 109
  - symbol: H # 132
    coordinates: [  0.666666666666667,  0.500000000000000,  0.666666666666667 ]
    mass: 1.007940
    reduced_to: 109
  - symbol: H # 133
    coordinates: [  0.000000000000000,  0.833333333333333,  0.666666666666667 ]
    mass: 1.007940
    reduced_to: 109
  - symbol: H # 134
    coordinates: [  0.333333333333333,  0.833333333333333,  0.666666666666667 ]
    mass: 1.007940
    reduced_to: 109
  - symbol: H # 135
    coordinates: [  0.666666666666667,  0.833333333333333,  0.666666666666667 ]
    mass: 1.007940
    reduced_to: 109
  - symbol: H # 136
    coordinates: [  0.000000000000000,  0.000000000000000,  0.166666666666667 ]
    mass: 1.007940
    reduced_to: 136
  - symbol: H # 137
    coordinates: [  0.333333333333333,  0.000000000000000,  0.166666666666667 ]
    mass: 1.007940
    reduced_to: 136
  - symbol: H # 138
    coordinates: [  0.666666666666667,  0.000000000000000,  0.166666666666667 ]
    mass: 1.007940
    reduced_to: 136
  - symbol: H # 139
    coordinates: [  0.000000000000000,  0.333333333333333,  0.166666666666667 ]
    mass: 1.007940
    reduced_to: 136
  - symbol: H # 140
    coordinates: [  0.333333333333333,  0.333333333333333,  0.166666666666667 ]
    mass: 1.007940
    reduced_to: 136
  - symbol: H # 141
    coordinates: [  0.666666666666667,  0.333333333333333,  0.166666666666667 ]
    mass: 1.007940
    reduced_to: 136
  - symbol: H # 142
    coordinates: [  0.000000000000000,  0.666666666666667,  0.166666666666667 ]
    mass: 1.007940
    reduced_to: 136
  - symbol: H # 143
    coordinates: [  0.333333333333333,  0.666666666666667,  0.166666666666667 ]
    mass: 1.007940
    reduced_to: 136
  - symbol: H # 144
    coordinates: [  0.666666666666667,  0.666666666666667,  0.166666666666667 ]
    mass: 1.007940
    reduced_to: 136
  - symbol: H # 145
    coordinates: [  0.000000000000000,  0.000000000000000,  0.500000000000000 ]
    mass: 1.007940
    reduced_to: 136
  - symbol: H # 146
    coordinates: [  0.333333333333333,  0.000000000000000,  0.500000000000000 ]
    mass: 1.007940
    reduced_to: 136
  - symbol: H # 147
    coordinates: [  0.666666666666667,  0.000000000000000,  0.500000000000000 ]
    mass: 1.007940
    reduced_to: 136
  - symbol: H # 148
    coordinates: [  0.000000000000000,  0.333333333333333,  0.500000000000000 ]
    mass: 1.007940
    reduced_to: 136
  - symbol: H # 149
    coordinates: [  0.333333333333333,  0.333333333333333,  0.500000000000000 ]
    mass: 1.007940
    reduced_to: 136
  - symbol: H # 150
    coordinates: [  0.666666666666667,  0.333333333333333,  0.500000000000000 ]
    mass: 1.007940
    reduced_to: 136
  - symbol: H # 151
    coordinates: [  0.000000000000000,  0.666666666666667,  0.500000000000000 ]
    mass: 1.007940
    reduced_to: 136
  - symbol: H # 152
    coordinates: [  0.333333333333333,  0.666666666666667,  0.500000000000000 ]
    mass: 1.007940
    reduced_to: 136
  - symbol: H # 153
    coordinates: [  0.666666666666667,  0.666666666666667,  0.500000000000000 ]
    mass: 1.007940
    reduced_to: 136
  - symbol: H # 154
    coordinates: [  0.000000000000000,  0.000000000000000,  0.833333333333333 ]
    mass: 1.007940
    reduced_to: 136
  - symbol: H # 155
    coordinates: [  0.333333333333333,  0.000000000000000,  0.833333333333333 ]
    mass: 1.007940
    reduced_to: 136
  - symbol: H # 156
    coordinates: [  0.666666666666667,  0.000000000000000,  0.833333333333333 ]
    mass: 1.007940
    reduced_to: 136
  - symbol: H # 157
    coordinates: [  0.000000000000000,  0.333333333333333,  0.833333333333333 ]
    mass: 1.007940
    reduced_to: 136
  - symbol: H # 158
    coordinates: [  0.333333333333333,  0.333333333333333,  0.833333333333333 ]
    mass: 1.007940
    reduced_to: 136
  - symbol: H # 159
    coordinates: [  0.666666666666667,  0.333333333333333,  0.833333333333333 ]
    mass: 1.007940
    reduced_to: 136
  - symbol: H # 160
    coordinates: [  0.000000000000000,  0.666666666666667,  0.833333333333333 ]
    mass: 1.007940
    reduced_to: 136
  - symbol: H # 161
    coordinates: [  0.333333333333333,  0.666666666666667,  0.833333333333333 ]
    mass: 1.007940
    reduced_to: 136
  - symbol: H # 162
    coordinates: [  0.666666666666667,  0.666666666666667,  0.833333333333333 ]
    mass: 1.007940
    reduced_to: 136
  - symbol: H # 163
    coordinates: [  0.166666666666667,  0.166666666666667,  0.166666666666667 ]
    mass: 1.007940
    reduced_to: 163
  - symbol: H # 164
    coordinates: [  0.500000000000000,  0.166666666666667,  0.166666666666667 ]
    mass: 1.007940
    reduced_to: 163
  - symbol: H # 165
    coordinates: [  0.833333333333333,  0.166666666666667,  0.166666666666667 ]
    mass: 1.007940
    reduced_to: 163
  - symbol: H # 166
    coordinates: [  0.166666666666667,  0.500000000000000,  0.166666666666667 ]
    mass: 1.007940
    reduced_to: 163
  - symbol: H # 167
    coordinates: [  0.500000000000000,  0.500000000000000,  0.166666666666667 ]
    mass: 1.007940
    reduced_to: 163
  - symbol: H # 168
    coordinates: [  0.833333333333333,  0.500000000000000,  0.166666666666667 ]
    mass: 1.007940
    reduced_to: 163
  - symbol: H # 169
    coordinates: [  0.166666666666667,  0.833333333333333,  0.166666666666667 ]
    mass: 1.007940
    reduced_to: 163
  - symbol: H # 170
    coordinates: [  0.500000000000000,  0.833333333333333,  0.166666666666667 ]
    mass: 1.007940
    reduced_to: 163
  - symbol: H # 171
    coordinates: [  0.833333333333333,  0.833333333333333,  0.166666666666667 ]
    mass: 1.007940
    reduced_to: 163
  - symbol: H # 172
    coordinates: [  0.166666666666667,  0.166666666666667,  0.500000000000000 ]
    mass: 1.007940
    reduced_to: 163
  - symbol: H # 173
    coordinates: [  0.500000000000000,  0.166666666666667,  0.500000000000000 ]
    mass: 1.007940
    reduced_to: 163
  - symbol: H # 174
    coordinates: [  0.833333333333333,  0.166666666666667,  0.500000000000000 ]
    mass: 1.007940
    reduced_to: 163
  - symbol: H # 175
    coordinates: [  0.166666666666667,  0.500000000000000,  0.500000000000000 ]
    mass: 1.007940
    reduced_to: 163
  - symbol: H # 176
    coordinates: [  0.500000000000000,  0.500000000000000,  0.500000000000000 ]
    mass: 1.007940
    reduced_to: 163
  - symbol: H # 177
    coordinates: [  0.833333333333333,  0.500000000000000,  0.500000000000000 ]
    mass: 1.007940
    reduced_to: 163
  - symbol: H # 178
    coordinates: [  0.166666666666667,  0.833333333333333,  0.500000000000000 ]
    mass: 1.007940
    reduced_to: 163
  - symbol: H # 179
    coordinates: [  0.500000000000000,  0.833333333333333,  0.500000000000000 ]
    mass: 1.007940
    reduced_to: 163
  - symbol: H # 180
    coordinates: [  0.833333333333333,  0.833333333333333,  0.500000000000000 ]
    mass: 1.007940
    reduced_to: 163
  - symbol: H # 181
    coordinates: [  0.166666666666667,  0.166666666666667,  0.833333333333333 ]
    mass: 1.007940
    reduced_to: 163
  - symbol: H # 182
    coordinates: [  0.500000000000000,  0.166666666666667,  0.833333333333333 ]
    mass: 1.007940
    reduced_to: 163
  - symbol: H # 183
    coordinates: [  0.833333333333333,  0.166666666666667,  0.833333333333333 ]
    mass: 1.007940
    reduced_to: 163
  - symbol: H # 184
    coordinates: [  0.166666666666667,  0.500000000000000,  0.833333333333333 ]
    mass: 1.007940
    reduced_to: 163
  - symbol: H # 185
    coordinates: [  0.500000000000000,  0.500000000000000,  0.833333333333333 ]
    mass: 1.007940
    reduced_to: 163
  - symbol: H # 186
    coordinates: [  0.833333333333333,  0.500000000000000,  0.833333333333333 ]
    mass: 1.007940
    reduced_to: 163
  - symbol: H # 187
    coordinates: [  0.166666666666667,  0.833333333333333,  0.833333333333333 ]
    mass: 1.007940
    reduced_to: 163
  - symbol: H # 188
    coordinates: [  0.500000000000000,  0.833333333333333,  0.833333333333333 ]
    mass: 1.007940
    reduced_to: 163
  - symbol: H # 189
    coordinates: [  0.833333333333333,  0.833333333333333,  0.833333333333333 ]
    mass: 1.007940
    reduced_to: 163
  - symbol: H # 190
    coordinates: [  0.166666666666667,  0.000000000000000,  0.000000000000000 ]
    mass: 1.007940
    reduced_to: 190
  - symbol: H # 191
    coordinates: [  0.500000000000000,  0.000000000000000,  0.000000000000000 ]
    mass: 1.007940
    reduced_to: 190
  - symbol: H # 192