phonopy:
  version: "2.30.1"
  frequency_unit_conversion_factor: 15.633302
  symmetry_tolerance: 1.00000e-01
  configuration:
    create_displacements: ".true."
    dim: "2 2 2"
    symmetry_tolerance: "0.1"

physical_unit:
  atomic_mass: "AMU"
  length: "angstrom"

space_group:
  type: "Fm-3m"
  number: 225
  Hall_symbol: "-F 4 2 3"

supercell_matrix:
- [   2,   0,   0 ]
- [   0,   2,   0 ]
- [   0,   0,   2 ]

primitive_cell:
  lattice:
  - [     2.828399222544271,     0.000000001982611,    -0.000000001594830 ] # a
  - [     1.414199215486264,     2.449466058030923,    -0.000000000820450 ] # b
  - [     1.414199779509189,     0.816488691677351,     2.309378943188415 ] # c
  points:
  - symbol: Li # 1
    coordinates: [  0.000000000000000,  0.000000000000000,  0.000000000000000 ]
    mass: 6.941000
  - symbol: H # 2
    coordinates: [  0.500000000000000,  0.500000000000000,  0.500000000000000 ]
    mass: 1.007940
  reciprocal_lattice: # without 2pi
  - [     0.353556878464619,    -0.204126061936453,    -0.144338996120171 ] # a*
  - [    -0.000000000367558,     0.408252238124605,    -0.144338951493468 ] # b*
  - [     0.000000000244162,     0.000000000004072,     0.433016851825428 ] # c*

unit_cell:
  lattice:
  - [     2.828399222544271,     0.000000001982611,    -0.000000001594830 ] # a
  - [     1.414199215486264,     2.449466058030923,    -0.000000000820450 ] # b
  - [     1.414199779509189,     0.816488691677351,     2.309378943188415 ] # c
  points:
  - symbol: Li # 1
    coordinates: [  0.000000000000000,  0.000000000000000,  0.000000000000000 ]
    mass: 6.941000
    reduced_to: 1
  - symbol: H # 2
    coordinates: [  0.500000000000000,  0.500000000000000,  0.500000000000000 ]
    mass: 1.007940
    reduced_to: 2

supercell:
  lattice:
  - [     5.656798445088541,     0.000000003965221,    -0.000000003189660 ] # a
  - [     2.828398430972529,     4.898932116061846,    -0.000000001640900 ] # b
  - [     2.828399559018378,     1.632977383354702,     4.618757886376830 ] # c
  points:
  - symbol: Li # 1
    coordinates: [  0.000000000000000,  0.000000000000000,  0.000000000000000 ]
    mass: 6.941000
    reduced_to: 1
  - symbol: Li # 2
    coordinates: [  0.500000000000000,  0.000000000000000,  0.000000000000000 ]
    mass: 6.941000
    reduced_to: 1
  - symbol: Li # 3
    coordinates: [  0.000000000000000,  0.500000000000000,  0.000000000000000 ]
    mass: 6.941000
    reduced_to: 1
  - symbol: Li # 4
    coordinates: [  0.500000000000000,  0.500000000000000,  0.000000000000000 ]
    mass: 6.941000
    reduced_to: 1
  - symbol: Li # 5
    coordinates: [  0.000000000000000,  0.000000000000000,  0.500000000000000 ]
    mass: 6.941000
    reduced_to: 1
  - symbol: Li # 6
    coordinates: [  0.500000000000000,  0.000000000000000,  0.500000000000000 ]
    mass: 6.941000
    reduced_to: 1
  - symbol: Li # 7
    coordinates: [  0.000000000000000,  0.500000000000000,  0.500000000000000 ]
    mass: 6.941000
    reduced_to: 1
  - symbol: Li # 8
    coordinates: [  0.500000000000000,  0.500000000000000,  0.500000000000000 ]
    mass: 6.941000
    reduced_to: 1
  - symbol: H # 9
    coordinates: [  0.250000000000000,  0.250000000000000,  0.250000000000000 ]
    mass: 1.007940
    reduced_to: 9
  - symbol: H # 10
    coordinates: [  0.750000000000000,  0.250000000000000,  0.250000000000000 ]
    mass: 1.007940
    reduced_to: 9
  - symbol: H # 11
    coordinates: [  0.250000000000000,  0.750000000000000,  0.250000000000000 ]
    mass: 1.007940
    reduced_to: 9
  - symbol: H # 12
    coordinates: [  0.750000000000000,  0.750000000000000,  0.250000000000000 ]
    mass: 1.007940
    reduced_to: 9
  - symbol: H # 13
    coordinates: [  0.250000000000000,  0.250000000000000,  0.750000000000000 ]
    mass: 1.007940
    reduced_to: 9
  - symbol: H # 14
    coordinates: [  0.750000000000000,  0.250000000000000,  0.750000000000000 ]
    mass: 1.007940
    reduced_to: 9
  - symbol: H # 15
    coordinates: [  0.250000000000000,  0.750000000000000,  0.750000000000000 ]
    mass: 1.007940
    reduced_to: 9
  - symbol: H # 16
    coordinates: [  0.750000000000000,  0.750000000000000,  0.750000000000000 ]
    mass: 1.007940
    reduced_to: 9

displacements:
- atom:    1
  displacement:
    [   0.0100000000000000,  0.0000000000070097, -0.0000000000056386 ]
- atom:    9
  displacement:
    [   0.0100000000000000,  0.0000000000070097, -0.0000000000056386 ]
